LAMMPS data file generated with write_lammpsdata from private PyMD library. Ask author for python script m.f.dopke@tudelft.nl

496 atoms
330 bonds
165 angles
0 dihedrals
0 impropers

3 atom types
1 bond types
1 angle types

 -8.5000   8.5000 xlo xhi
 -8.5000   8.5000 ylo yhi
 -8.5000   8.5000 zlo zhi

Atoms

     1      1      1 -1.11280000   -3.828    0.922    1.298
     2      1      2  0.55640000   -3.415    1.585    1.922
     3      1      2  0.55640000   -4.457    1.393    0.680
     4      2      1 -1.11280000   -3.828    3.522   -3.902
     5      2      2  0.55640000   -3.415    4.185   -3.278
     6      2      2  0.55640000   -4.457    3.993   -4.520
     7      3      1 -1.11280000   -3.828   -6.878    3.898
     8      3      2  0.55640000   -3.415   -6.215    4.522
     9      3      2  0.55640000   -4.457   -6.407    3.280
    10      4      1 -1.11280000    1.372   -1.678    1.298
    11      4      2  0.55640000    1.785   -1.015    1.922
    12      4      2  0.55640000    0.743   -1.207    0.680
    13      5      1 -1.11280000    6.572   -4.278    3.898
    14      5      2  0.55640000    6.985   -3.615    4.522
    15      5      2  0.55640000    5.943   -3.807    3.280
    16      6      1 -1.11280000    1.372    3.522    1.298
    17      6      2  0.55640000    1.785    4.185    1.922
    18      6      2  0.55640000    0.743    3.993    0.680
    19      7      1 -1.11280000   -3.828   -1.678    6.498
    20      7      2  0.55640000   -3.415   -1.015    7.122
    21      7      2  0.55640000   -4.457   -1.207    5.880
    22      8      1 -1.11280000    3.972    3.522    1.298
    23      8      2  0.55640000    4.385    4.185    1.922
    24      8      2  0.55640000    3.343    3.993    0.680
    25      9      1 -1.11280000    3.972   -1.678    1.298
    26      9      2  0.55640000    4.385   -1.015    1.922
    27      9      2  0.55640000    3.343   -1.207    0.680
    28     10      1 -1.11280000   -6.428   -1.678    1.298
    29     10      2  0.55640000   -6.015   -1.015    1.922
    30     10      2  0.55640000   -7.057   -1.207    0.680
    31     11      1 -1.11280000    1.372   -6.878    6.498
    32     11      2  0.55640000    1.785   -6.215    7.122
    33     11      2  0.55640000    0.743   -6.407    5.880
    34     12      1 -1.11280000    6.572   -6.878   -1.302
    35     12      2  0.55640000    6.985   -6.215   -0.678
    36     12      2  0.55640000    5.943   -6.407   -1.920
    37     13      1 -1.11280000    6.572    0.922    6.498
    38     13      2  0.55640000    6.985    1.585    7.122
    39     13      2  0.55640000    5.943    1.393    5.880
    40     14      1 -1.11280000    6.572    0.922    1.298
    41     14      2  0.55640000    6.985    1.585    1.922
    42     14      2  0.55640000    5.943    1.393    0.680
    43     15      1 -1.11280000   -6.428   -6.878    1.298
    44     15      2  0.55640000   -6.015   -6.215    1.922
    45     15      2  0.55640000   -7.057   -6.407    0.680
    46     16      1 -1.11280000   -1.228   -4.278   -3.902
    47     16      2  0.55640000   -0.815   -3.615   -3.278
    48     16      2  0.55640000   -1.857   -3.807   -4.520
    49     17      1 -1.11280000   -6.428   -1.678   -1.302
    50     17      2  0.55640000   -6.015   -1.015   -0.678
    51     17      2  0.55640000   -7.057   -1.207   -1.920
    52     18      1 -1.11280000    3.972   -6.878    3.898
    53     18      2  0.55640000    4.385   -6.215    4.522
    54     18      2  0.55640000    3.343   -6.407    3.280
    55     19      1 -1.11280000    3.972    6.122   -3.902
    56     19      2  0.55640000    4.385    6.785   -3.278
    57     19      2  0.55640000    3.343    6.593   -4.520
    58     20      1 -1.11280000    1.372    3.522   -3.902
    59     20      2  0.55640000    1.785    4.185   -3.278
    60     20      2  0.55640000    0.743    3.993   -4.520
    61     21      1 -1.11280000   -1.228   -6.878    1.298
    62     21      2  0.55640000   -0.815   -6.215    1.922
    63     21      2  0.55640000   -1.857   -6.407    0.680
    64     22      1 -1.11280000    1.372    3.522    6.498
    65     22      2  0.55640000    1.785    4.185    7.122
    66     22      2  0.55640000    0.743    3.993    5.880
    67     23      1 -1.11280000   -6.428   -4.278    6.498
    68     23      2  0.55640000   -6.015   -3.615    7.122
    69     23      2  0.55640000   -7.057   -3.807    5.880
    70     24      1 -1.11280000   -3.828    3.522    6.498
    71     24      2  0.55640000   -3.415    4.185    7.122
    72     24      2  0.55640000   -4.457    3.993    5.880
    73     25      1 -1.11280000    3.972   -1.678   -6.502
    74     25      2  0.55640000    4.385   -1.015   -5.878
    75     25      2  0.55640000    3.343   -1.207   -7.120
    76     26      1 -1.11280000   -6.428    3.522    1.298
    77     26      2  0.55640000   -6.015    4.185    1.922
    78     26      2  0.55640000   -7.057    3.993    0.680
    79     27      1 -1.11280000   -3.828    0.922   -6.502
    80     27      2  0.55640000   -3.415    1.585   -5.878
    81     27      2  0.55640000   -4.457    1.393   -7.120
    82     28      1 -1.11280000   -1.228   -6.878    3.898
    83     28      2  0.55640000   -0.815   -6.215    4.522
    84     28      2  0.55640000   -1.857   -6.407    3.280
    85     29      1 -1.11280000    3.972    6.122    6.498
    86     29      2  0.55640000    4.385    6.785    7.122
    87     29      2  0.55640000    3.343    6.593    5.880
    88     30      1 -1.11280000   -6.428   -1.678   -6.502
    89     30      2  0.55640000   -6.015   -1.015   -5.878
    90     30      2  0.55640000   -7.057   -1.207   -7.120
    91     31      1 -1.11280000    1.372    0.922   -1.302
    92     31      2  0.55640000    1.785    1.585   -0.678
    93     31      2  0.55640000    0.743    1.393   -1.920
    94     32      1 -1.11280000   -3.828    6.122   -6.502
    95     32      2  0.55640000   -3.415    6.785   -5.878
    96     32      2  0.55640000   -4.457    6.593   -7.120
    97     33      1 -1.11280000   -3.828   -1.678    1.298
    98     33      2  0.55640000   -3.415   -1.015    1.922
    99     33      2  0.55640000   -4.457   -1.207    0.680
   100     34      1 -1.11280000    1.372    0.922    1.298
   101     34      2  0.55640000    1.785    1.585    1.922
   102     34      2  0.55640000    0.743    1.393    0.680
   103     35      1 -1.11280000    6.572    3.522   -3.902
   104     35      2  0.55640000    6.985    4.185   -3.278
   105     35      2  0.55640000    5.943    3.993   -4.520
   106     36      1 -1.11280000    6.572    3.522    3.898
   107     36      2  0.55640000    6.985    4.185    4.522
   108     36      2  0.55640000    5.943    3.993    3.280
   109     37      1 -1.11280000   -6.428    3.522    3.898
   110     37      2  0.55640000   -6.015    4.185    4.522
   111     37      2  0.55640000   -7.057    3.993    3.280
   112     38      1 -1.11280000    3.972    0.922   -1.302
   113     38      2  0.55640000    4.385    1.585   -0.678
   114     38      2  0.55640000    3.343    1.393   -1.920
   115     39      1 -1.11280000   -6.428   -6.878    6.498
   116     39      2  0.55640000   -6.015   -6.215    7.122
   117     39      2  0.55640000   -7.057   -6.407    5.880
   118     40      1 -1.11280000    3.972   -1.678    6.498
   119     40      2  0.55640000    4.385   -1.015    7.122
   120     40      2  0.55640000    3.343   -1.207    5.880
   121     41      1 -1.11280000    1.372   -1.678    3.898
   122     41      2  0.55640000    1.785   -1.015    4.522
   123     41      2  0.55640000    0.743   -1.207    3.280
   124     42      1 -1.11280000    3.972    0.922   -3.902
   125     42      2  0.55640000    4.385    1.585   -3.278
   126     42      2  0.55640000    3.343    1.393   -4.520
   127     43      1 -1.11280000    6.572    3.522    6.498
   128     43      2  0.55640000    6.985    4.185    7.122
   129     43      2  0.55640000    5.943    3.993    5.880
   130     44      1 -1.11280000    6.572    6.122   -1.302
   131     44      2  0.55640000    6.985    6.785   -0.678
   132     44      2  0.55640000    5.943    6.593   -1.920
   133     45      1 -1.11280000    1.372   -6.878   -1.302
   134     45      2  0.55640000    1.785   -6.215   -0.678
   135     45      2  0.55640000    0.743   -6.407   -1.920
   136     46      1 -1.11280000   -1.228    6.122    6.498
   137     46      2  0.55640000   -0.815    6.785    7.122
   138     46      2  0.55640000   -1.857    6.593    5.880
   139     47      1 -1.11280000    3.972   -4.278   -1.302
   140     47      2  0.55640000    4.385   -3.615   -0.678
   141     47      2  0.55640000    3.343   -3.807   -1.920
   142     48      1 -1.11280000   -3.828   -6.878    6.498
   143     48      2  0.55640000   -3.415   -6.215    7.122
   144     48      2  0.55640000   -4.457   -6.407    5.880
   145     49      1 -1.11280000   -1.228   -1.678    3.898
   146     49      2  0.55640000   -0.815   -1.015    4.522
   147     49      2  0.55640000   -1.857   -1.207    3.280
   148     50      1 -1.11280000    6.572   -1.678    6.498
   149     50      2  0.55640000    6.985   -1.015    7.122
   150     50      2  0.55640000    5.943   -1.207    5.880
   151     51      1 -1.11280000   -3.828    6.122   -1.302
   152     51      2  0.55640000   -3.415    6.785   -0.678
   153     51      2  0.55640000   -4.457    6.593   -1.920
   154     52      1 -1.11280000   -6.428   -6.878   -3.902
   155     52      2  0.55640000   -6.015   -6.215   -3.278
   156     52      2  0.55640000   -7.057   -6.407   -4.520
   157     53      1 -1.11280000    3.972   -6.878    1.298
   158     53      2  0.55640000    4.385   -6.215    1.922
   159     53      2  0.55640000    3.343   -6.407    0.680
   160     54      1 -1.11280000    3.972   -1.678   -1.302
   161     54      2  0.55640000    4.385   -1.015   -0.678
   162     54      2  0.55640000    3.343   -1.207   -1.920
   163     55      1 -1.11280000    1.372    3.522    3.898
   164     55      2  0.55640000    1.785    4.185    4.522
   165     55      2  0.55640000    0.743    3.993    3.280
   166     56      1 -1.11280000   -3.828    6.122    3.898
   167     56      2  0.55640000   -3.415    6.785    4.522
   168     56      2  0.55640000   -4.457    6.593    3.280
   169     57      1 -1.11280000   -6.428    3.522   -6.502
   170     57      2  0.55640000   -6.015    4.185   -5.878
   171     57      2  0.55640000   -7.057    3.993   -7.120
   172     58      1 -1.11280000    3.972   -1.678   -3.902
   173     58      2  0.55640000    4.385   -1.015   -3.278
   174     58      2  0.55640000    3.343   -1.207   -4.520
   175     59      1 -1.11280000    3.972   -4.278    3.898
   176     59      2  0.55640000    4.385   -3.615    4.522
   177     59      2  0.55640000    3.343   -3.807    3.280
   178     60      1 -1.11280000   -3.828   -6.878   -1.302
   179     60      2  0.55640000   -3.415   -6.215   -0.678
   180     60      2  0.55640000   -4.457   -6.407   -1.920
   181     61      1 -1.11280000    6.572    6.122   -3.902
   182     61      2  0.55640000    6.985    6.785   -3.278
   183     61      2  0.55640000    5.943    6.593   -4.520
   184     62      1 -1.11280000   -3.828    6.122   -3.902
   185     62      2  0.55640000   -3.415    6.785   -3.278
   186     62      2  0.55640000   -4.457    6.593   -4.520
   187     63      1 -1.11280000   -1.228   -1.678    1.298
   188     63      2  0.55640000   -0.815   -1.015    1.922
   189     63      2  0.55640000   -1.857   -1.207    0.680
   190     64      1 -1.11280000   -1.228   -4.278    6.498
   191     64      2  0.55640000   -0.815   -3.615    7.122
   192     64      2  0.55640000   -1.857   -3.807    5.880
   193     65      1 -1.11280000    1.372   -4.278   -3.902
   194     65      2  0.55640000    1.785   -3.615   -3.278
   195     65      2  0.55640000    0.743   -3.807   -4.520
   196     66      1 -1.11280000   -6.428    0.922   -3.902
   197     66      2  0.55640000   -6.015    1.585   -3.278
   198     66      2  0.55640000   -7.057    1.393   -4.520
   199     67      1 -1.11280000    3.972    3.522    3.898
   200     67      2  0.55640000    4.385    4.185    4.522
   201     67      2  0.55640000    3.343    3.993    3.280
   202     68      1 -1.11280000    3.972    6.122   -6.502
   203     68      2  0.55640000    4.385    6.785   -5.878
   204     68      2  0.55640000    3.343    6.593   -7.120
   205     69      1 -1.11280000   -6.428   -4.278    1.298
   206     69      2  0.55640000   -6.015   -3.615    1.922
   207     69      2  0.55640000   -7.057   -3.807    0.680
   208     70      1 -1.11280000    6.572   -4.278    1.298
   209     70      2  0.55640000    6.985   -3.615    1.922
   210     70      2  0.55640000    5.943   -3.807    0.680
   211     71      1 -1.11280000    6.572    6.122    3.898
   212     71      2  0.55640000    6.985    6.785    4.522
   213     71      2  0.55640000    5.943    6.593    3.280
   214     72      1 -1.11280000    1.372   -4.278   -1.302
   215     72      2  0.55640000    1.785   -3.615   -0.678
   216     72      2  0.55640000    0.743   -3.807   -1.920
   217     73      1 -1.11280000    6.572   -4.278   -3.902
   218     73      2  0.55640000    6.985   -3.615   -3.278
   219     73      2  0.55640000    5.943   -3.807   -4.520
   220     74      1 -1.11280000    1.372    3.522   -6.502
   221     74      2  0.55640000    1.785    4.185   -5.878
   222     74      2  0.55640000    0.743    3.993   -7.120
   223     75      1 -1.11280000    6.572    0.922   -1.302
   224     75      2  0.55640000    6.985    1.585   -0.678
   225     75      2  0.55640000    5.943    1.393   -1.920
   226     76      1 -1.11280000   -3.828    0.922   -3.902
   227     76      2  0.55640000   -3.415    1.585   -3.278
   228     76      2  0.55640000   -4.457    1.393   -4.520
   229     77      1 -1.11280000   -6.428   -6.878    3.898
   230     77      2  0.55640000   -6.015   -6.215    4.522
   231     77      2  0.55640000   -7.057   -6.407    3.280
   232     78      1 -1.11280000   -1.228    0.922    1.298
   233     78      2  0.55640000   -0.815    1.585    1.922
   234     78      2  0.55640000   -1.857    1.393    0.680
   235     79      1 -1.11280000   -6.428   -6.878   -1.302
   236     79      2  0.55640000   -6.015   -6.215   -0.678
   237     79      2  0.55640000   -7.057   -6.407   -1.920
   238     80      1 -1.11280000    3.972    6.122   -1.302
   239     80      2  0.55640000    4.385    6.785   -0.678
   240     80      2  0.55640000    3.343    6.593   -1.920
   241     81      1 -1.11280000   -6.428    6.122    3.898
   242     81      2  0.55640000   -6.015    6.785    4.522
   243     81      2  0.55640000   -7.057    6.593    3.280
   244     82      1 -1.11280000   -3.828   -4.278   -3.902
   245     82      2  0.55640000   -3.415   -3.615   -3.278
   246     82      2  0.55640000   -4.457   -3.807   -4.520
   247     83      1 -1.11280000   -1.228    3.522   -3.902
   248     83      2  0.55640000   -0.815    4.185   -3.278
   249     83      2  0.55640000   -1.857    3.993   -4.520
   250     84      1 -1.11280000   -6.428    6.122   -3.902
   251     84      2  0.55640000   -6.015    6.785   -3.278
   252     84      2  0.55640000   -7.057    6.593   -4.520
   253     85      1 -1.11280000   -6.428   -6.878   -6.502
   254     85      2  0.55640000   -6.015   -6.215   -5.878
   255     85      2  0.55640000   -7.057   -6.407   -7.120
   256     86      1 -1.11280000   -1.228    6.122    1.298
   257     86      2  0.55640000   -0.815    6.785    1.922
   258     86      2  0.55640000   -1.857    6.593    0.680
   259     87      1 -1.11280000    3.972    6.122    1.298
   260     87      2  0.55640000    4.385    6.785    1.922
   261     87      2  0.55640000    3.343    6.593    0.680
   262     88      1 -1.11280000   -1.228   -6.878   -1.302
   263     88      2  0.55640000   -0.815   -6.215   -0.678
   264     88      2  0.55640000   -1.857   -6.407   -1.920
   265     89      1 -1.11280000   -6.428   -1.678    3.898
   266     89      2  0.55640000   -6.015   -1.015    4.522
   267     89      2  0.55640000   -7.057   -1.207    3.280
   268     90      1 -1.11280000   -3.828   -6.878   -6.502
   269     90      2  0.55640000   -3.415   -6.215   -5.878
   270     90      2  0.55640000   -4.457   -6.407   -7.120
   271     91      1 -1.11280000    6.572    0.922   -3.902
   272     91      2  0.55640000    6.985    1.585   -3.278
   273     91      2  0.55640000    5.943    1.393   -4.520
   274     92      1 -1.11280000   -3.828   -4.278   -6.502
   275     92      2  0.55640000   -3.415   -3.615   -5.878
   276     92      2  0.55640000   -4.457   -3.807   -7.120
   277     93      1 -1.11280000   -6.428    6.122   -1.302
   278     93      2  0.55640000   -6.015    6.785   -0.678
   279     93      2  0.55640000   -7.057    6.593   -1.920
   280     94      1 -1.11280000   -3.828   -1.678   -6.502
   281     94      2  0.55640000   -3.415   -1.015   -5.878
   282     94      2  0.55640000   -4.457   -1.207   -7.120
   283     95      1 -1.11280000   -1.228    0.922    6.498
   284     95      2  0.55640000   -0.815    1.585    7.122
   285     95      2  0.55640000   -1.857    1.393    5.880
   286     96      1 -1.11280000   -6.428    0.922    1.298
   287     96      2  0.55640000   -6.015    1.585    1.922
   288     96      2  0.55640000   -7.057    1.393    0.680
   289     97      1 -1.11280000   -3.828    0.922   -1.302
   290     97      2  0.55640000   -3.415    1.585   -0.678
   291     97      2  0.55640000   -4.457    1.393   -1.920
   292     98      1 -1.11280000   -1.228   -1.678    6.498
   293     98      2  0.55640000   -0.815   -1.015    7.122
   294     98      2  0.55640000   -1.857   -1.207    5.880
   295     99      1 -1.11280000    1.372   -6.878    3.898
   296     99      2  0.55640000    1.785   -6.215    4.522
   297     99      2  0.55640000    0.743   -6.407    3.280
   298    100      1 -1.11280000    6.572   -1.678   -1.302
   299    100      2  0.55640000    6.985   -1.015   -0.678
   300    100      2  0.55640000    5.943   -1.207   -1.920
   301    101      1 -1.11280000   -1.228   -1.678   -3.902
   302    101      2  0.55640000   -0.815   -1.015   -3.278
   303    101      2  0.55640000   -1.857   -1.207   -4.520
   304    102      1 -1.11280000   -1.228   -4.278    1.298
   305    102      2  0.55640000   -0.815   -3.615    1.922
   306    102      2  0.55640000   -1.857   -3.807    0.680
   307    103      1 -1.11280000    6.572    3.522    1.298
   308    103      2  0.55640000    6.985    4.185    1.922
   309    103      2  0.55640000    5.943    3.993    0.680
   310    104      1 -1.11280000   -3.828    3.522    3.898
   311    104      2  0.55640000   -3.415    4.185    4.522
   312    104      2  0.55640000   -4.457    3.993    3.280
   313    105      1 -1.11280000    3.972   -4.278   -3.902
   314    105      2  0.55640000    4.385   -3.615   -3.278
   315    105      2  0.55640000    3.343   -3.807   -4.520
   316    106      1 -1.11280000    3.972   -4.278    1.298
   317    106      2  0.55640000    4.385   -3.615    1.922
   318    106      2  0.55640000    3.343   -3.807    0.680
   319    107      1 -1.11280000    3.972   -6.878   -3.902
   320    107      2  0.55640000    4.385   -6.215   -3.278
   321    107      2  0.55640000    3.343   -6.407   -4.520
   322    108      1 -1.11280000   -1.228    3.522    1.298
   323    108      2  0.55640000   -0.815    4.185    1.922
   324    108      2  0.55640000   -1.857    3.993    0.680
   325    109      1 -1.11280000    1.372    0.922   -6.502
   326    109      2  0.55640000    1.785    1.585   -5.878
   327    109      2  0.55640000    0.743    1.393   -7.120
   328    110      1 -1.11280000    1.372   -4.278    6.498
   329    110      2  0.55640000    1.785   -3.615    7.122
   330    110      2  0.55640000    0.743   -3.807    5.880
   331    111      1 -1.11280000   -6.428    3.522   -3.902
   332    111      2  0.55640000   -6.015    4.185   -3.278
   333    111      2  0.55640000   -7.057    3.993   -4.520
   334    112      1 -1.11280000   -1.228    6.122   -6.502
   335    112      2  0.55640000   -0.815    6.785   -5.878
   336    112      2  0.55640000   -1.857    6.593   -7.120
   337    113      1 -1.11280000   -6.428    3.522   -1.302
   338    113      2  0.55640000   -6.015    4.185   -0.678
   339    113      2  0.55640000   -7.057    3.993   -1.920
   340    114      1 -1.11280000   -6.428    0.922    6.498
   341    114      2  0.55640000   -6.015    1.585    7.122
   342    114      2  0.55640000   -7.057    1.393    5.880
   343    115      1 -1.11280000   -1.228    3.522    3.898
   344    115      2  0.55640000   -0.815    4.185    4.522
   345    115      2  0.55640000   -1.857    3.993    3.280
   346    116      1 -1.11280000   -6.428   -4.278   -1.302
   347    116      2  0.55640000   -6.015   -3.615   -0.678
   348    116      2  0.55640000   -7.057   -3.807   -1.920
   349    117      1 -1.11280000    6.572   -4.278   -6.502
   350    117      2  0.55640000    6.985   -3.615   -5.878
   351    117      2  0.55640000    5.943   -3.807   -7.120
   352    118      1 -1.11280000    1.372   -1.678    6.498
   353    118      2  0.55640000    1.785   -1.015    7.122
   354    118      2  0.55640000    0.743   -1.207    5.880
   355    119      1 -1.11280000   -6.428    6.122    1.298
   356    119      2  0.55640000   -6.015    6.785    1.922
   357    119      2  0.55640000   -7.057    6.593    0.680
   358    120      1 -1.11280000    6.572   -6.878    3.898
   359    120      2  0.55640000    6.985   -6.215    4.522
   360    120      2  0.55640000    5.943   -6.407    3.280
   361    121      1 -1.11280000   -3.828   -6.878   -3.902
   362    121      2  0.55640000   -3.415   -6.215   -3.278
   363    121      2  0.55640000   -4.457   -6.407   -4.520
   364    122      1 -1.11280000    3.972    0.922   -6.502
   365    122      2  0.55640000    4.385    1.585   -5.878
   366    122      2  0.55640000    3.343    1.393   -7.120
   367    123      1 -1.11280000   -1.228   -4.278   -6.502
   368    123      2  0.55640000   -0.815   -3.615   -5.878
   369    123      2  0.55640000   -1.857   -3.807   -7.120
   370    124      1 -1.11280000    3.972    3.522   -1.302
   371    124      2  0.55640000    4.385    4.185   -0.678
   372    124      2  0.55640000    3.343    3.993   -1.920
   373    125      1 -1.11280000    3.972    6.122    3.898
   374    125      2  0.55640000    4.385    6.785    4.522
   375    125      2  0.55640000    3.343    6.593    3.280
   376    126      1 -1.11280000   -1.228    6.122   -3.902
   377    126      2  0.55640000   -0.815    6.785   -3.278
   378    126      2  0.55640000   -1.857    6.593   -4.520
   379    127      1 -1.11280000    6.572    6.122   -6.502
   380    127      2  0.55640000    6.985    6.785   -5.878
   381    127      2  0.55640000    5.943    6.593   -7.120
   382    128      1 -1.11280000   -6.428   -1.678    6.498
   383    128      2  0.55640000   -6.015   -1.015    7.122
   384    128      2  0.55640000   -7.057   -1.207    5.880
   385    129      1 -1.11280000    3.972   -4.278    6.498
   386    129      2  0.55640000    4.385   -3.615    7.122
   387    129      2  0.55640000    3.343   -3.807    5.880
   388    130      1 -1.11280000    1.372    6.122   -3.902
   389    130      2  0.55640000    1.785    6.785   -3.278
   390    130      2  0.55640000    0.743    6.593   -4.520
   391    131      1 -1.11280000    3.972   -6.878   -1.302
   392    131      2  0.55640000    4.385   -6.215   -0.678
   393    131      2  0.55640000    3.343   -6.407   -1.920
   394    132      1 -1.11280000   -6.428   -4.278    3.898
   395    132      2  0.55640000   -6.015   -3.615    4.522
   396    132      2  0.55640000   -7.057   -3.807    3.280
   397    133      1 -1.11280000   -3.828    6.122    6.498
   398    133      2  0.55640000   -3.415    6.785    7.122
   399    133      2  0.55640000   -4.457    6.593    5.880
   400    134      1 -1.11280000    1.372   -4.278    1.298
   401    134      2  0.55640000    1.785   -3.615    1.922
   402    134      2  0.55640000    0.743   -3.807    0.680
   403    135      1 -1.11280000    6.572   -1.678   -3.902
   404    135      2  0.55640000    6.985   -1.015   -3.278
   405    135      2  0.55640000    5.943   -1.207   -4.520
   406    136      1 -1.11280000   -1.228   -4.278   -1.302
   407    136      2  0.55640000   -0.815   -3.615   -0.678
   408    136      2  0.55640000   -1.857   -3.807   -1.920
   409    137      1 -1.11280000   -6.428    0.922    3.898
   410    137      2  0.55640000   -6.015    1.585    4.522
   411    137      2  0.55640000   -7.057    1.393    3.280
   412    138      1 -1.11280000   -6.428   -4.278   -3.902
   413    138      2  0.55640000   -6.015   -3.615   -3.278
   414    138      2  0.55640000   -7.057   -3.807   -4.520
   415    139      1 -1.11280000   -3.828   -4.278    3.898
   416    139      2  0.55640000   -3.415   -3.615    4.522
   417    139      2  0.55640000   -4.457   -3.807    3.280
   418    140      1 -1.11280000    3.972    3.522   -6.502
   419    140      2  0.55640000    4.385    4.185   -5.878
   420    140      2  0.55640000    3.343    3.993   -7.120
   421    141      1 -1.11280000    1.372    0.922   -3.902
   422    141      2  0.55640000    1.785    1.585   -3.278
   423    141      2  0.55640000    0.743    1.393   -4.520
   424    142      1 -1.11280000    6.572    6.122    1.298
   425    142      2  0.55640000    6.985    6.785    1.922
   426    142      2  0.55640000    5.943    6.593    0.680
   427    143      1 -1.11280000   -3.828    0.922    6.498
   428    143      2  0.55640000   -3.415    1.585    7.122
   429    143      2  0.55640000   -4.457    1.393    5.880
   430    144      1 -1.11280000    1.372   -4.278   -6.502
   431    144      2  0.55640000    1.785   -3.615   -5.878
   432    144      2  0.55640000    0.743   -3.807   -7.120
   433    145      1 -1.11280000   -1.228   -6.878    6.498
   434    145      2  0.55640000   -0.815   -6.215    7.122
   435    145      2  0.55640000   -1.857   -6.407    5.880
   436    146      1 -1.11280000    1.372   -6.878    1.298
   437    146      2  0.55640000    1.785   -6.215    1.922
   438    146      2  0.55640000    0.743   -6.407    0.680
   439    147      1 -1.11280000   -1.228    6.122   -1.302
   440    147      2  0.55640000   -0.815    6.785   -0.678
   441    147      2  0.55640000   -1.857    6.593   -1.920
   442    148      1 -1.11280000    3.972    3.522    6.498
   443    148      2  0.55640000    4.385    4.185    7.122
   444    148      2  0.55640000    3.343    3.993    5.880
   445    149      1 -1.11280000   -3.828   -1.678    3.898
   446    149      2  0.55640000   -3.415   -1.015    4.522
   447    149      2  0.55640000   -4.457   -1.207    3.280
   448    150      1 -1.11280000    6.572    0.922    3.898
   449    150      2  0.55640000    6.985    1.585    4.522
   450    150      2  0.55640000    5.943    1.393    3.280
   451    151      1 -1.11280000    3.972    0.922    3.898
   452    151      2  0.55640000    4.385    1.585    4.522
   453    151      2  0.55640000    3.343    1.393    3.280
   454    152      1 -1.11280000    6.572   -6.878   -3.902
   455    152      2  0.55640000    6.985   -6.215   -3.278
   456    152      2  0.55640000    5.943   -6.407   -4.520
   457    153      1 -1.11280000   -6.428    6.122    6.498
   458    153      2  0.55640000   -6.015    6.785    7.122
   459    153      2  0.55640000   -7.057    6.593    5.880
   460    154      1 -1.11280000   -1.228    6.122    3.898
   461    154      2  0.55640000   -0.815    6.785    4.522
   462    154      2  0.55640000   -1.857    6.593    3.280
   463    155      1 -1.11280000    3.972    3.522   -3.902
   464    155      2  0.55640000    4.385    4.185   -3.278
   465    155      2  0.55640000    3.343    3.993   -4.520
   466    156      1 -1.11280000   -6.428   -1.678   -3.902
   467    156      2  0.55640000   -6.015   -1.015   -3.278
   468    156      2  0.55640000   -7.057   -1.207   -4.520
   469    157      1 -1.11280000   -1.228   -6.878   -6.502
   470    157      2  0.55640000   -0.815   -6.215   -5.878
   471    157      2  0.55640000   -1.857   -6.407   -7.120
   472    158      1 -1.11280000   -1.228    0.922    3.898
   473    158      2  0.55640000   -0.815    1.585    4.522
   474    158      2  0.55640000   -1.857    1.393    3.280
   475    159      1 -1.11280000    1.372   -1.678   -6.502
   476    159      2  0.55640000    1.785   -1.015   -5.878
   477    159      2  0.55640000    0.743   -1.207   -7.120
   478    160      1 -1.11280000    6.572   -4.278   -1.302
   479    160      2  0.55640000    6.985   -3.615   -0.678
   480    160      2  0.55640000    5.943   -3.807   -1.920
   481    161      1 -1.11280000    6.572    0.922   -6.502
   482    161      2  0.55640000    6.985    1.585   -5.878
   483    161      2  0.55640000    5.943    1.393   -7.120
   484    162      1 -1.11280000    6.572    3.522   -1.302
   485    162      2  0.55640000    6.985    4.185   -0.678
   486    162      2  0.55640000    5.943    3.993   -1.920
   487    163      1 -1.11280000    1.372    0.922    6.498
   488    163      2  0.55640000    1.785    1.585    7.122
   489    163      2  0.55640000    0.743    1.393    5.880
   490    164      1 -1.11280000    6.572   -4.278    6.498
   491    164      2  0.55640000    6.985   -3.615    7.122
   492    164      2  0.55640000    5.943   -3.807    5.880
   493    165      1 -1.11280000   -3.828    3.522   -6.502
   494    165      2  0.55640000   -3.415    4.185   -5.878